<?xml version="1.0"?>
<VTKFile type="UnstructuredGrid" version="0.1" byte_order="LittleEndian">
  <UnstructuredGrid>
    <Piece NumberOfPoints="38" NumberOfCells="18">
      <PointData Scalars="flux">
        <DataArray Name="flux" format="ascii" type="Float64" >
            0.532084E+00   0.106138E+01   0.105895E+01   0.105689E+01   0.105516E+01   0.105376E+01   0.105269E+01   0.105194E+01   0.105149E+01   0.105133E+01   0.105149E+01   0.105194E+01   0.105269E+01   0.105376E+01   0.105516E+01   0.105689E+01   0.105895E+01   0.106138E+01   0.532084E+00   0.532084E+00   0.106138E+01   0.105895E+01   0.105689E+01   0.105516E+01   0.105376E+01   0.105269E+01   0.105194E+01   0.105149E+01   0.105133E+01   0.105149E+01   0.105194E+01   0.105269E+01   0.105376E+01   0.105516E+01   0.105689E+01   0.105895E+01   0.106138E+01   0.532084E+00 
        </DataArray>
      </PointData>
      <CellData Scalars="Region, Cell">
        <DataArray Name="Region" format="ascii" type="Int32" >
          1 1 1 1 1 1 1 1 1 2 2 2 2 2 2 2 2 2 
        </DataArray>
        <DataArray Name="Cell" format="ascii" type="Int32" >
          1 2 3 4 5 6 7 8 9 10 11 12 13 14 15 16 17 18 
        </DataArray>
      </CellData>
      <Points>
        <DataArray Name="Coordinates" NumberOfComponents="3" format="ascii" type="Float64" >
            0.000000E+00 0.000000E+00 0.000000E+00   0.444444E-01 0.000000E+00 0.000000E+00   0.888889E-01 0.000000E+00 0.000000E+00   0.133333E+00 0.000000E+00 0.000000E+00   0.177778E+00 0.000000E+00 0.000000E+00   0.222222E+00 0.000000E+00 0.000000E+00   0.266667E+00 0.000000E+00 0.000000E+00   0.311111E+00 0.000000E+00 0.000000E+00   0.355556E+00 0.000000E+00 0.000000E+00   0.400000E+00 0.000000E+00 0.000000E+00   0.444444E+00 0.000000E+00 0.000000E+00   0.488889E+00 0.000000E+00 0.000000E+00   0.533333E+00 0.000000E+00 0.000000E+00   0.577778E+00 0.000000E+00 0.000000E+00   0.622222E+00 0.000000E+00 0.000000E+00   0.666667E+00 0.000000E+00 0.000000E+00   0.711111E+00 0.000000E+00 0.000000E+00   0.755556E+00 0.000000E+00 0.000000E+00   0.800000E+00 0.000000E+00 0.000000E+00   0.000000E+00 0.100000E+01 0.000000E+00   0.444444E-01 0.100000E+01 0.000000E+00   0.888889E-01 0.100000E+01 0.000000E+00   0.133333E+00 0.100000E+01 0.000000E+00   0.177778E+00 0.100000E+01 0.000000E+00   0.222222E+00 0.100000E+01 0.000000E+00   0.266667E+00 0.100000E+01 0.000000E+00   0.311111E+00 0.100000E+01 0.000000E+00   0.355556E+00 0.100000E+01 0.000000E+00   0.400000E+00 0.100000E+01 0.000000E+00   0.444444E+00 0.100000E+01 0.000000E+00   0.488889E+00 0.100000E+01 0.000000E+00   0.533333E+00 0.100000E+01 0.000000E+00   0.577778E+00 0.100000E+01 0.000000E+00   0.622222E+00 0.100000E+01 0.000000E+00   0.666667E+00 0.100000E+01 0.000000E+00   0.711111E+00 0.100000E+01 0.000000E+00   0.755556E+00 0.100000E+01 0.000000E+00   0.800000E+00 0.100000E+01 0.000000E+00 
        </DataArray>
      </Points>
      <Cells>
        <DataArray type="Int32" Name="connectivity" format="ascii">
          0 1 20 19 1 2 21 20 2 3 22 21 3 4 23 22 4 5 24 23 5 6 25 24 6 7 26 25 7 8 27 26 8 9 28 27 9 10 29 28 10 11 30 29 11 12 31 30 12 13 32 31 13 14 33 32 14 15 34 33 15 16 35 34 16 17 36 35 17 18 37 36 
         </DataArray>
        <DataArray type="Int32" Name="offsets" format="ascii">
          4 8 12 16 20 24 28 32 36 40 44 48 52 56 60 64 68 72 
         </DataArray>
          <DataArray type="Int32" Name="types" format="ascii">
          5 5 5 5 5 5 5 5 5 5 5 5 5 5 5 5 5 5 
         </DataArray>
      </Cells>
    </Piece>
  </UnstructuredGrid>
</VTKFile>
