<?xml version="1.0"?>
<VTKFile type="UnstructuredGrid" version="0.1" byte_order="LittleEndian">
  <UnstructuredGrid>
    <Piece NumberOfPoints="60" NumberOfCells="29">
      <PointData Scalars="flux">
        <DataArray Name="flux" format="ascii" type="Float64" >
            0.100000E+02   0.100000E+02   0.100000E+02   0.100000E+02   0.100000E+02   0.100000E+02   0.100000E+02   0.100000E+02   0.100000E+02   0.100000E+02   0.133333E+01   0.133333E+01   0.133333E+01   0.133333E+01   0.133333E+01   0.133333E+01   0.133333E+01   0.133333E+01   0.133333E+01   0.133333E+01   0.200000E+00   0.200000E+00   0.200000E+00   0.200000E+00   0.200000E+00   0.200000E+00   0.200000E+00   0.200000E+00   0.200000E+00   0.200000E+00   0.100000E+02   0.100000E+02   0.100000E+02   0.100000E+02   0.100000E+02   0.100000E+02   0.100000E+02   0.100000E+02   0.100000E+02   0.100000E+02   0.133333E+01   0.133333E+01   0.133333E+01   0.133333E+01   0.133333E+01   0.133333E+01   0.133333E+01   0.133333E+01   0.133333E+01   0.133333E+01   0.200000E+00   0.200000E+00   0.200000E+00   0.200000E+00   0.200000E+00   0.200000E+00   0.200000E+00   0.200000E+00   0.200000E+00   0.200000E+00 
        </DataArray>
      </PointData>
      <CellData>
      </CellData>
      <Points>
        <DataArray Name="Coordinates" NumberOfComponents="3" format="ascii" type="Float64" >
            0.000000E+00 0.000000E+00 0.000000E+00   0.555556E-01 0.000000E+00 0.000000E+00   0.111111E+00 0.000000E+00 0.000000E+00   0.166667E+00 0.000000E+00 0.000000E+00   0.222222E+00 0.000000E+00 0.000000E+00   0.277778E+00 0.000000E+00 0.000000E+00   0.333333E+00 0.000000E+00 0.000000E+00   0.388889E+00 0.000000E+00 0.000000E+00   0.444444E+00 0.000000E+00 0.000000E+00   0.500000E+00 0.000000E+00 0.000000E+00   0.555556E+00 0.000000E+00 0.000000E+00   0.588889E+00 0.000000E+00 0.000000E+00   0.622222E+00 0.000000E+00 0.000000E+00   0.655556E+00 0.000000E+00 0.000000E+00   0.688889E+00 0.000000E+00 0.000000E+00   0.722222E+00 0.000000E+00 0.000000E+00   0.755556E+00 0.000000E+00 0.000000E+00   0.788889E+00 0.000000E+00 0.000000E+00   0.822222E+00 0.000000E+00 0.000000E+00   0.855556E+00 0.000000E+00 0.000000E+00   0.888889E+00 0.000000E+00 0.000000E+00   0.911111E+00 0.000000E+00 0.000000E+00   0.933333E+00 0.000000E+00 0.000000E+00   0.955556E+00 0.000000E+00 0.000000E+00   0.977778E+00 0.000000E+00 0.000000E+00   0.100000E+01 0.000000E+00 0.000000E+00   0.102222E+01 0.000000E+00 0.000000E+00   0.104444E+01 0.000000E+00 0.000000E+00   0.106667E+01 0.000000E+00 0.000000E+00   0.108889E+01 0.000000E+00 0.000000E+00   0.000000E+00 0.100000E+01 0.000000E+00   0.555556E-01 0.100000E+01 0.000000E+00   0.111111E+00 0.100000E+01 0.000000E+00   0.166667E+00 0.100000E+01 0.000000E+00   0.222222E+00 0.100000E+01 0.000000E+00   0.277778E+00 0.100000E+01 0.000000E+00   0.333333E+00 0.100000E+01 0.000000E+00   0.388889E+00 0.100000E+01 0.000000E+00   0.444444E+00 0.100000E+01 0.000000E+00   0.500000E+00 0.100000E+01 0.000000E+00   0.555556E+00 0.100000E+01 0.000000E+00   0.588889E+00 0.100000E+01 0.000000E+00   0.622222E+00 0.100000E+01 0.000000E+00   0.655556E+00 0.100000E+01 0.000000E+00   0.688889E+00 0.100000E+01 0.000000E+00   0.722222E+00 0.100000E+01 0.000000E+00   0.755556E+00 0.100000E+01 0.000000E+00   0.788889E+00 0.100000E+01 0.000000E+00   0.822222E+00 0.100000E+01 0.000000E+00   0.855556E+00 0.100000E+01 0.000000E+00   0.888889E+00 0.100000E+01 0.000000E+00   0.911111E+00 0.100000E+01 0.000000E+00   0.933333E+00 0.100000E+01 0.000000E+00   0.955556E+00 0.100000E+01 0.000000E+00   0.977778E+00 0.100000E+01 0.000000E+00   0.100000E+01 0.100000E+01 0.000000E+00   0.102222E+01 0.100000E+01 0.000000E+00   0.104444E+01 0.100000E+01 0.000000E+00   0.106667E+01 0.100000E+01 0.000000E+00   0.108889E+01 0.100000E+01 0.000000E+00 
        </DataArray>
      </Points>
      <Cells>
        <DataArray type="Int32" Name="connectivity" format="ascii">
          0 1 31 30 1 2 32 31 2 3 33 32 3 4 34 33 4 5 35 34 5 6 36 35 6 7 37 36 7 8 38 37 8 9 39 38 9 10 40 39 10 11 41 40 11 12 42 41 12 13 43 42 13 14 44 43 14 15 45 44 15 16 46 45 16 17 47 46 17 18 48 47 18 19 49 48 19 20 50 49 20 21 51 50 21 22 52 51 22 23 53 52 23 24 54 53 24 25 55 54 25 26 56 55 26 27 57 56 27 28 58 57 28 29 59 58 
         </DataArray>
        <DataArray type="Int32" Name="offsets" format="ascii">
          4 8 12 16 20 24 28 32 36 40 44 48 52 56 60 64 68 72 76 80 84 88 92 96 100 104 108 112 116 
         </DataArray>
          <DataArray type="Int32" Name="types" format="ascii">
          5 5 5 5 5 5 5 5 5 5 5 5 5 5 5 5 5 5 5 5 5 5 5 5 5 5 5 5 5 
         </DataArray>
      </Cells>
    </Piece>
  </UnstructuredGrid>
</VTKFile>
