<?xml version="1.0"?>
<VTKFile type="UnstructuredGrid" version="0.1" byte_order="LittleEndian">
  <UnstructuredGrid>
    <Piece NumberOfPoints="118" NumberOfCells="58">
      <PointData Scalars="flux">
        <DataArray Name="flux" format="ascii" type="Float64" >
            0.100000E+02   0.100000E+02   0.100000E+02   0.100000E+02   0.100000E+02   0.100000E+02   0.100000E+02   0.100000E+02   0.100000E+02   0.100000E+02   0.100000E+02   0.100000E+02   0.100000E+02   0.100000E+02   0.100000E+02   0.100000E+02   0.100000E+02   0.100000E+02   0.100000E+02   0.100000E+02   0.100000E+02   0.100000E+02   0.100000E+02   0.100000E+02   0.100000E+02   0.100000E+02   0.100000E+02   0.100000E+02   0.100000E+02   0.350000E+01   0.133333E+01   0.133333E+01   0.133333E+01   0.133333E+01   0.133333E+01   0.133333E+01   0.133333E+01   0.133333E+01   0.133333E+01   0.133333E+01   0.133333E+01   0.133333E+01   0.133333E+01   0.133333E+01   0.133333E+01   0.133333E+01   0.133333E+01   0.133333E+01   0.133333E+01   0.133333E+01   0.133333E+01   0.133333E+01   0.133333E+01   0.133333E+01   0.133333E+01   0.133333E+01   0.133333E+01   0.133333E+01   0.133333E+01   0.100000E+02   0.100000E+02   0.100000E+02   0.100000E+02   0.100000E+02   0.100000E+02   0.100000E+02   0.100000E+02   0.100000E+02   0.100000E+02   0.100000E+02   0.100000E+02   0.100000E+02   0.100000E+02   0.100000E+02   0.100000E+02   0.100000E+02   0.100000E+02   0.100000E+02   0.100000E+02   0.100000E+02   0.100000E+02   0.100000E+02   0.100000E+02   0.100000E+02   0.100000E+02   0.100000E+02   0.100000E+02   0.100000E+02   0.350000E+01   0.133333E+01   0.133333E+01   0.133333E+01   0.133333E+01   0.133333E+01   0.133333E+01   0.133333E+01   0.133333E+01   0.133333E+01   0.133333E+01   0.133333E+01   0.133333E+01   0.133333E+01   0.133333E+01   0.133333E+01   0.133333E+01   0.133333E+01   0.133333E+01   0.133333E+01   0.133333E+01   0.133333E+01   0.133333E+01   0.133333E+01   0.133333E+01   0.133333E+01   0.133333E+01   0.133333E+01   0.133333E+01   0.133333E+01 
        </DataArray>
      </PointData>
      <CellData Scalars="Region">
        <DataArray Name="Region" format="ascii" type="Int32" >
          1 1 1 1 1 1 1 1 1 1 1 1 1 1 1 1 1 1 1 1 1 1 1 1 1 1 1 1 1 2 2 2 2 2 2 2 2 2 2 2 2 2 2 2 2 2 2 2 2 2 2 2 2 2 2 2 2 2 
        </DataArray>
      </CellData>
      <Points>
        <DataArray Name="Coordinates" NumberOfComponents="3" format="ascii" type="Float64" >
            0.000000E+00 0.000000E+00 0.000000E+00   0.172414E-01 0.000000E+00 0.000000E+00   0.344828E-01 0.000000E+00 0.000000E+00   0.517241E-01 0.000000E+00 0.000000E+00   0.689655E-01 0.000000E+00 0.000000E+00   0.862069E-01 0.000000E+00 0.000000E+00   0.103448E+00 0.000000E+00 0.000000E+00   0.120690E+00 0.000000E+00 0.000000E+00   0.137931E+00 0.000000E+00 0.000000E+00   0.155172E+00 0.000000E+00 0.000000E+00   0.172414E+00 0.000000E+00 0.000000E+00   0.189655E+00 0.000000E+00 0.000000E+00   0.206897E+00 0.000000E+00 0.000000E+00   0.224138E+00 0.000000E+00 0.000000E+00   0.241379E+00 0.000000E+00 0.000000E+00   0.258621E+00 0.000000E+00 0.000000E+00   0.275862E+00 0.000000E+00 0.000000E+00   0.293103E+00 0.000000E+00 0.000000E+00   0.310345E+00 0.000000E+00 0.000000E+00   0.327586E+00 0.000000E+00 0.000000E+00   0.344828E+00 0.000000E+00 0.000000E+00   0.362069E+00 0.000000E+00 0.000000E+00   0.379310E+00 0.000000E+00 0.000000E+00   0.396552E+00 0.000000E+00 0.000000E+00   0.413793E+00 0.000000E+00 0.000000E+00   0.431034E+00 0.000000E+00 0.000000E+00   0.448276E+00 0.000000E+00 0.000000E+00   0.465517E+00 0.000000E+00 0.000000E+00   0.482759E+00 0.000000E+00 0.000000E+00   0.500000E+00 0.000000E+00 0.000000E+00   0.517241E+00 0.000000E+00 0.000000E+00   0.534483E+00 0.000000E+00 0.000000E+00   0.551724E+00 0.000000E+00 0.000000E+00   0.568966E+00 0.000000E+00 0.000000E+00   0.586207E+00 0.000000E+00 0.000000E+00   0.603448E+00 0.000000E+00 0.000000E+00   0.620690E+00 0.000000E+00 0.000000E+00   0.637931E+00 0.000000E+00 0.000000E+00   0.655172E+00 0.000000E+00 0.000000E+00   0.672414E+00 0.000000E+00 0.000000E+00   0.689655E+00 0.000000E+00 0.000000E+00   0.706897E+00 0.000000E+00 0.000000E+00   0.724138E+00 0.000000E+00 0.000000E+00   0.741379E+00 0.000000E+00 0.000000E+00   0.758621E+00 0.000000E+00 0.000000E+00   0.775862E+00 0.000000E+00 0.000000E+00   0.793103E+00 0.000000E+00 0.000000E+00   0.810345E+00 0.000000E+00 0.000000E+00   0.827586E+00 0.000000E+00 0.000000E+00   0.844828E+00 0.000000E+00 0.000000E+00   0.862069E+00 0.000000E+00 0.000000E+00   0.879310E+00 0.000000E+00 0.000000E+00   0.896552E+00 0.000000E+00 0.000000E+00   0.913793E+00 0.000000E+00 0.000000E+00   0.931034E+00 0.000000E+00 0.000000E+00   0.948276E+00 0.000000E+00 0.000000E+00   0.965517E+00 0.000000E+00 0.000000E+00   0.982759E+00 0.000000E+00 0.000000E+00   0.100000E+01 0.000000E+00 0.000000E+00   0.000000E+00 0.100000E+01 0.000000E+00   0.172414E-01 0.100000E+01 0.000000E+00   0.344828E-01 0.100000E+01 0.000000E+00   0.517241E-01 0.100000E+01 0.000000E+00   0.689655E-01 0.100000E+01 0.000000E+00   0.862069E-01 0.100000E+01 0.000000E+00   0.103448E+00 0.100000E+01 0.000000E+00   0.120690E+00 0.100000E+01 0.000000E+00   0.137931E+00 0.100000E+01 0.000000E+00   0.155172E+00 0.100000E+01 0.000000E+00   0.172414E+00 0.100000E+01 0.000000E+00   0.189655E+00 0.100000E+01 0.000000E+00   0.206897E+00 0.100000E+01 0.000000E+00   0.224138E+00 0.100000E+01 0.000000E+00   0.241379E+00 0.100000E+01 0.000000E+00   0.258621E+00 0.100000E+01 0.000000E+00   0.275862E+00 0.100000E+01 0.000000E+00   0.293103E+00 0.100000E+01 0.000000E+00   0.310345E+00 0.100000E+01 0.000000E+00   0.327586E+00 0.100000E+01 0.000000E+00   0.344828E+00 0.100000E+01 0.000000E+00   0.362069E+00 0.100000E+01 0.000000E+00   0.379310E+00 0.100000E+01 0.000000E+00   0.396552E+00 0.100000E+01 0.000000E+00   0.413793E+00 0.100000E+01 0.000000E+00   0.431034E+00 0.100000E+01 0.000000E+00   0.448276E+00 0.100000E+01 0.000000E+00   0.465517E+00 0.100000E+01 0.000000E+00   0.482759E+00 0.100000E+01 0.000000E+00   0.500000E+00 0.100000E+01 0.000000E+00   0.517241E+00 0.100000E+01 0.000000E+00   0.534483E+00 0.100000E+01 0.000000E+00   0.551724E+00 0.100000E+01 0.000000E+00   0.568966E+00 0.100000E+01 0.000000E+00   0.586207E+00 0.100000E+01 0.000000E+00   0.603448E+00 0.100000E+01 0.000000E+00   0.620690E+00 0.100000E+01 0.000000E+00   0.637931E+00 0.100000E+01 0.000000E+00   0.655172E+00 0.100000E+01 0.000000E+00   0.672414E+00 0.100000E+01 0.000000E+00   0.689655E+00 0.100000E+01 0.000000E+00   0.706897E+00 0.100000E+01 0.000000E+00   0.724138E+00 0.100000E+01 0.000000E+00   0.741379E+00 0.100000E+01 0.000000E+00   0.758621E+00 0.100000E+01 0.000000E+00   0.775862E+00 0.100000E+01 0.000000E+00   0.793103E+00 0.100000E+01 0.000000E+00   0.810345E+00 0.100000E+01 0.000000E+00   0.827586E+00 0.100000E+01 0.000000E+00   0.844828E+00 0.100000E+01 0.000000E+00   0.862069E+00 0.100000E+01 0.000000E+00   0.879310E+00 0.100000E+01 0.000000E+00   0.896552E+00 0.100000E+01 0.000000E+00   0.913793E+00 0.100000E+01 0.000000E+00   0.931034E+00 0.100000E+01 0.000000E+00   0.948276E+00 0.100000E+01 0.000000E+00   0.965517E+00 0.100000E+01 0.000000E+00   0.982759E+00 0.100000E+01 0.000000E+00   0.100000E+01 0.100000E+01 0.000000E+00 
        </DataArray>
      </Points>
      <Cells>
        <DataArray type="Int32" Name="connectivity" format="ascii">
          0 1 60 59 1 2 61 60 2 3 62 61 3 4 63 62 4 5 64 63 5 6 65 64 6 7 66 65 7 8 67 66 8 9 68 67 9 10 69 68 10 11 70 69 11 12 71 70 12 13 72 71 13 14 73 72 14 15 74 73 15 16 75 74 16 17 76 75 17 18 77 76 18 19 78 77 19 20 79 78 20 21 80 79 21 22 81 80 22 23 82 81 23 24 83 82 24 25 84 83 25 26 85 84 26 27 86 85 27 28 87 86 28 29 88 87 29 30 89 88 30 31 90 89 31 32 91 90 32 33 92 91 33 34 93 92 34 35 94 93 35 36 95 94 36 37 96 95 37 38 97 96 38 39 98 97 39 40 99 98 40 41 100 99 41 42 101 100 42 43 102 101 43 44 103 102 44 45 104 103 45 46 105 104 46 47 106 105 47 48 107 106 48 49 108 107 49 50 109 108 50 51 110 109 51 52 111 110 52 53 112 111 53 54 113 112 54 55 114 113 55 56 115 114 56 57 116 115 57 58 117 116 
         </DataArray>
        <DataArray type="Int32" Name="offsets" format="ascii">
          4 8 12 16 20 24 28 32 36 40 44 48 52 56 60 64 68 72 76 80 84 88 92 96 100 104 108 112 116 120 124 128 132 136 140 144 148 152 156 160 164 168 172 176 180 184 188 192 196 200 204 208 212 216 220 224 228 232 
         </DataArray>
          <DataArray type="Int32" Name="types" format="ascii">
          5 5 5 5 5 5 5 5 5 5 5 5 5 5 5 5 5 5 5 5 5 5 5 5 5 5 5 5 5 5 5 5 5 5 5 5 5 5 5 5 5 5 5 5 5 5 5 5 5 5 5 5 5 5 5 5 5 5 
         </DataArray>
      </Cells>
    </Piece>
  </UnstructuredGrid>
</VTKFile>
