<?xml version="1.0"?>
<VTKFile type="UnstructuredGrid" version="0.1" byte_order="LittleEndian">
  <UnstructuredGrid>
    <Piece NumberOfPoints="10" NumberOfCells="4">
      <PointData Scalars="flux">
        <DataArray Name="flux" format="ascii" type="Float64" >
            0.140090E+01   0.142495E+01   0.150000E+01   0.157505E+01   0.159910E+01   0.140090E+01   0.142495E+01   0.150000E+01   0.157505E+01   0.159910E+01 
        </DataArray>
      </PointData>
      <CellData Scalars="Region, Cell">
        <DataArray Name="Region" format="ascii" type="Int32" >
          1 1 2 2 
        </DataArray>
        <DataArray Name="Cell" format="ascii" type="Int32" >
          1 2 3 4 
        </DataArray>
      </CellData>
      <Points>
        <DataArray Name="Coordinates" NumberOfComponents="3" format="ascii" type="Float64" >
            0.000000E+00 0.000000E+00 0.000000E+00   0.200000E+00 0.000000E+00 0.000000E+00   0.400000E+00 0.000000E+00 0.000000E+00   0.600000E+00 0.000000E+00 0.000000E+00   0.800000E+00 0.000000E+00 0.000000E+00   0.000000E+00 0.100000E+01 0.000000E+00   0.200000E+00 0.100000E+01 0.000000E+00   0.400000E+00 0.100000E+01 0.000000E+00   0.600000E+00 0.100000E+01 0.000000E+00   0.800000E+00 0.100000E+01 0.000000E+00 
        </DataArray>
      </Points>
      <Cells>
        <DataArray type="Int32" Name="connectivity" format="ascii">
          0 1 6 5 1 2 7 6 2 3 8 7 3 4 9 8 
         </DataArray>
        <DataArray type="Int32" Name="offsets" format="ascii">
          4 8 12 16 
         </DataArray>
          <DataArray type="Int32" Name="types" format="ascii">
          5 5 5 5 
         </DataArray>
      </Cells>
    </Piece>
  </UnstructuredGrid>
</VTKFile>
