<?xml version="1.0"?>
<VTKFile type="UnstructuredGrid" version="0.1" byte_order="LittleEndian">
  <UnstructuredGrid>
    <Piece NumberOfPoints="44" NumberOfCells="21">
      <PointData Scalars="flux">
        <DataArray Name="flux" format="ascii" type="Float64" >
            0.100000E+02   0.100000E+02   0.100000E+02   0.100000E+02   0.100000E+02   0.100000E+02   0.100000E+02   0.100000E+02   0.100000E+02   0.100000E+02   0.100000E+02   0.333333E+00   0.333333E+00   0.333333E+00   0.333333E+00   0.333333E+00   0.333333E+00   0.333333E+00   0.333333E+00   0.333333E+00   0.333333E+00   0.333333E+00   0.100000E+02   0.100000E+02   0.100000E+02   0.100000E+02   0.100000E+02   0.100000E+02   0.100000E+02   0.100000E+02   0.100000E+02   0.100000E+02   0.100000E+02   0.333333E+00   0.333333E+00   0.333333E+00   0.333333E+00   0.333333E+00   0.333333E+00   0.333333E+00   0.333333E+00   0.333333E+00   0.333333E+00   0.333333E+00 
        </DataArray>
      </PointData>
      <CellData>
      </CellData>
      <Points>
        <DataArray Name="Coordinates" NumberOfComponents="3" format="ascii" type="Float64" >
            0.000000E+00 0.000000E+00 0.000000E+00   0.500000E-01 0.000000E+00 0.000000E+00   0.100000E+00 0.000000E+00 0.000000E+00   0.150000E+00 0.000000E+00 0.000000E+00   0.200000E+00 0.000000E+00 0.000000E+00   0.250000E+00 0.000000E+00 0.000000E+00   0.300000E+00 0.000000E+00 0.000000E+00   0.350000E+00 0.000000E+00 0.000000E+00   0.400000E+00 0.000000E+00 0.000000E+00   0.450000E+00 0.000000E+00 0.000000E+00   0.500000E+00 0.000000E+00 0.000000E+00   0.550000E+00 0.000000E+00 0.000000E+00   0.600000E+00 0.000000E+00 0.000000E+00   0.650000E+00 0.000000E+00 0.000000E+00   0.700000E+00 0.000000E+00 0.000000E+00   0.750000E+00 0.000000E+00 0.000000E+00   0.800000E+00 0.000000E+00 0.000000E+00   0.850000E+00 0.000000E+00 0.000000E+00   0.900000E+00 0.000000E+00 0.000000E+00   0.950000E+00 0.000000E+00 0.000000E+00   0.100000E+01 0.000000E+00 0.000000E+00   0.105000E+01 0.000000E+00 0.000000E+00   0.000000E+00 0.100000E+01 0.000000E+00   0.500000E-01 0.100000E+01 0.000000E+00   0.100000E+00 0.100000E+01 0.000000E+00   0.150000E+00 0.100000E+01 0.000000E+00   0.200000E+00 0.100000E+01 0.000000E+00   0.250000E+00 0.100000E+01 0.000000E+00   0.300000E+00 0.100000E+01 0.000000E+00   0.350000E+00 0.100000E+01 0.000000E+00   0.400000E+00 0.100000E+01 0.000000E+00   0.450000E+00 0.100000E+01 0.000000E+00   0.500000E+00 0.100000E+01 0.000000E+00   0.550000E+00 0.100000E+01 0.000000E+00   0.600000E+00 0.100000E+01 0.000000E+00   0.650000E+00 0.100000E+01 0.000000E+00   0.700000E+00 0.100000E+01 0.000000E+00   0.750000E+00 0.100000E+01 0.000000E+00   0.800000E+00 0.100000E+01 0.000000E+00   0.850000E+00 0.100000E+01 0.000000E+00   0.900000E+00 0.100000E+01 0.000000E+00   0.950000E+00 0.100000E+01 0.000000E+00   0.100000E+01 0.100000E+01 0.000000E+00   0.105000E+01 0.100000E+01 0.000000E+00 
        </DataArray>
      </Points>
      <Cells>
        <DataArray type="Int32" Name="connectivity" format="ascii">
          0 1 23 22 1 2 24 23 2 3 25 24 3 4 26 25 4 5 27 26 5 6 28 27 6 7 29 28 7 8 30 29 8 9 31 30 9 10 32 31 10 11 33 32 11 12 34 33 12 13 35 34 13 14 36 35 14 15 37 36 15 16 38 37 16 17 39 38 17 18 40 39 18 19 41 40 19 20 42 41 20 21 43 42 
         </DataArray>
        <DataArray type="Int32" Name="offsets" format="ascii">
          4 8 12 16 20 24 28 32 36 40 44 48 52 56 60 64 68 72 76 80 84 
         </DataArray>
          <DataArray type="Int32" Name="types" format="ascii">
          5 5 5 5 5 5 5 5 5 5 5 5 5 5 5 5 5 5 5 5 5 
         </DataArray>
      </Cells>
    </Piece>
  </UnstructuredGrid>
</VTKFile>
