<?xml version="1.0"?>
<VTKFile type="UnstructuredGrid" version="0.1" byte_order="LittleEndian">
  <UnstructuredGrid>
    <Piece NumberOfPoints="12" NumberOfCells="5">
      <PointData Scalars="flux">
        <DataArray Name="flux" format="ascii" type="Float64" >
            0.100000E+02   0.100000E+02   0.100000E+02   0.333333E+00   0.333333E+00   0.333333E+00   0.100000E+02   0.100000E+02   0.100000E+02   0.333333E+00   0.333333E+00   0.333333E+00 
        </DataArray>
      </PointData>
      <CellData>
      </CellData>
      <Points>
        <DataArray Name="Coordinates" NumberOfComponents="3" format="ascii" type="Float64" >
            0.000000E+00 0.000000E+00 0.000000E+00   0.250000E+00 0.000000E+00 0.000000E+00   0.500000E+00 0.000000E+00 0.000000E+00   0.750000E+00 0.000000E+00 0.000000E+00   0.100000E+01 0.000000E+00 0.000000E+00   0.125000E+01 0.000000E+00 0.000000E+00   0.000000E+00 0.100000E+01 0.000000E+00   0.250000E+00 0.100000E+01 0.000000E+00   0.500000E+00 0.100000E+01 0.000000E+00   0.750000E+00 0.100000E+01 0.000000E+00   0.100000E+01 0.100000E+01 0.000000E+00   0.125000E+01 0.100000E+01 0.000000E+00 
        </DataArray>
      </Points>
      <Cells>
        <DataArray type="Int32" Name="connectivity" format="ascii">
          0 1 7 6 1 2 8 7 2 3 9 8 3 4 10 9 4 5 11 10 
         </DataArray>
        <DataArray type="Int32" Name="offsets" format="ascii">
          4 8 12 16 20 
         </DataArray>
          <DataArray type="Int32" Name="types" format="ascii">
          5 5 5 5 5 
         </DataArray>
      </Cells>
    </Piece>
  </UnstructuredGrid>
</VTKFile>
