<?xml version="1.0"?>
<VTKFile type="UnstructuredGrid" version="0.1" byte_order="LittleEndian">
  <UnstructuredGrid>
    <Piece NumberOfPoints="10" NumberOfCells="0">
      <PointData Scalars="flux">
        <DataArray Name="flux" format="ascii" type="Float64" />  0.100000E+01   0.100000E+01   0.100000E+01   0.100000E+01   0.100000E+01   0.100000E+01   0.100000E+01   0.100000E+01   0.100000E+01   0.100000E+01 
      </PointData>
      <Points>
        <DataArray Name="Coordinates" NumberOfComponents="1" format="ascii" type="Float64" />  0.000000E+00   0.100000E+00   0.200000E+00   0.300000E+00   0.400000E+00   0.500000E+00   0.600000E+00   0.700000E+00   0.800000E+00   0.900000E+00 
      </Points>
    </Piece>
  </UnstructuredGrid>
</VTKFile>
