<?xml version="1.0"?>
<VTKFile type="UnstructuredGrid" version="0.1" byte_order="LittleEndian">
  <UnstructuredGrid>
    <Piece NumberOfPoints="38" NumberOfCells="18">
      <PointData Scalars="flux">
        <DataArray Name="flux" format="ascii" type="Float64" >
            0.184712E+01   0.184247E+01   0.182702E+01   0.180090E+01   0.176350E+01   0.171377E+01   0.165206E+01   0.157794E+01   0.149005E+01   0.138897E+01   0.124550E+01   0.112739E+01   0.103173E+01   0.955841E+00   0.895584E+00   0.851027E+00   0.821134E+00   0.805166E+00   0.800206E+00   0.184712E+01   0.184247E+01   0.182702E+01   0.180090E+01   0.176350E+01   0.171377E+01   0.165206E+01   0.157794E+01   0.149005E+01   0.138897E+01   0.124550E+01   0.112739E+01   0.103173E+01   0.955841E+00   0.895584E+00   0.851027E+00   0.821134E+00   0.805166E+00   0.800206E+00 
        </DataArray>
      </PointData>
      <CellData Scalars="Region, Cell">
        <DataArray Name="Region" format="ascii" type="Int32" >
          1 1 1 1 1 1 1 1 1 2 2 2 2 2 2 2 2 2 
        </DataArray>
        <DataArray Name="Cell" format="ascii" type="Int32" >
          1 2 3 4 5 6 7 8 9 10 11 12 13 14 15 16 17 18 
        </DataArray>
      </CellData>
      <Points>
        <DataArray Name="Coordinates" NumberOfComponents="3" format="ascii" type="Float64" >
            0.000000E+00 0.000000E+00 0.000000E+00   0.555556E-01 0.000000E+00 0.000000E+00   0.111111E+00 0.000000E+00 0.000000E+00   0.166667E+00 0.000000E+00 0.000000E+00   0.222222E+00 0.000000E+00 0.000000E+00   0.277778E+00 0.000000E+00 0.000000E+00   0.333333E+00 0.000000E+00 0.000000E+00   0.388889E+00 0.000000E+00 0.000000E+00   0.444444E+00 0.000000E+00 0.000000E+00   0.500000E+00 0.000000E+00 0.000000E+00   0.555556E+00 0.000000E+00 0.000000E+00   0.611111E+00 0.000000E+00 0.000000E+00   0.666667E+00 0.000000E+00 0.000000E+00   0.722222E+00 0.000000E+00 0.000000E+00   0.777778E+00 0.000000E+00 0.000000E+00   0.833333E+00 0.000000E+00 0.000000E+00   0.888889E+00 0.000000E+00 0.000000E+00   0.944444E+00 0.000000E+00 0.000000E+00   0.100000E+01 0.000000E+00 0.000000E+00   0.000000E+00 0.100000E+01 0.000000E+00   0.555556E-01 0.100000E+01 0.000000E+00   0.111111E+00 0.100000E+01 0.000000E+00   0.166667E+00 0.100000E+01 0.000000E+00   0.222222E+00 0.100000E+01 0.000000E+00   0.277778E+00 0.100000E+01 0.000000E+00   0.333333E+00 0.100000E+01 0.000000E+00   0.388889E+00 0.100000E+01 0.000000E+00   0.444444E+00 0.100000E+01 0.000000E+00   0.500000E+00 0.100000E+01 0.000000E+00   0.555556E+00 0.100000E+01 0.000000E+00   0.611111E+00 0.100000E+01 0.000000E+00   0.666667E+00 0.100000E+01 0.000000E+00   0.722222E+00 0.100000E+01 0.000000E+00   0.777778E+00 0.100000E+01 0.000000E+00   0.833333E+00 0.100000E+01 0.000000E+00   0.888889E+00 0.100000E+01 0.000000E+00   0.944444E+00 0.100000E+01 0.000000E+00   0.100000E+01 0.100000E+01 0.000000E+00 
        </DataArray>
      </Points>
      <Cells>
        <DataArray type="Int32" Name="connectivity" format="ascii">
          0 1 20 19 1 2 21 20 2 3 22 21 3 4 23 22 4 5 24 23 5 6 25 24 6 7 26 25 7 8 27 26 8 9 28 27 9 10 29 28 10 11 30 29 11 12 31 30 12 13 32 31 13 14 33 32 14 15 34 33 15 16 35 34 16 17 36 35 17 18 37 36 
         </DataArray>
        <DataArray type="Int32" Name="offsets" format="ascii">
          4 8 12 16 20 24 28 32 36 40 44 48 52 56 60 64 68 72 
         </DataArray>
          <DataArray type="Int32" Name="types" format="ascii">
          5 5 5 5 5 5 5 5 5 5 5 5 5 5 5 5 5 5 
         </DataArray>
      </Cells>
    </Piece>
  </UnstructuredGrid>
</VTKFile>
