<?xml version="1.0"?>
<VTKFile type="UnstructuredGrid" version="0.1" byte_order="LittleEndian">
  <UnstructuredGrid>
    <Piece NumberOfPoints="18" NumberOfCells="8">
      <PointData Scalars="flux">
        <DataArray Name="flux" format="ascii" type="Float64" >
            0.514803E-03   0.772488E+00   0.129942E+01   0.160601E+01   0.170664E+01   0.160601E+01   0.129942E+01   0.772488E+00   0.514803E-03   0.514803E-03   0.772488E+00   0.129942E+01   0.160601E+01   0.170664E+01   0.160601E+01   0.129942E+01   0.772488E+00   0.514803E-03 
        </DataArray>
      </PointData>
      <CellData Scalars="Region, Cell">
        <DataArray Name="Region" format="ascii" type="Int32" >
          1 1 1 1 2 2 2 2 
        </DataArray>
        <DataArray Name="Cell" format="ascii" type="Int32" >
          1 2 3 4 5 6 7 8 
        </DataArray>
      </CellData>
      <Points>
        <DataArray Name="Coordinates" NumberOfComponents="3" format="ascii" type="Float64" >
            0.000000E+00 0.000000E+00 0.000000E+00   0.125000E+00 0.000000E+00 0.000000E+00   0.250000E+00 0.000000E+00 0.000000E+00   0.375000E+00 0.000000E+00 0.000000E+00   0.500000E+00 0.000000E+00 0.000000E+00   0.625000E+00 0.000000E+00 0.000000E+00   0.750000E+00 0.000000E+00 0.000000E+00   0.875000E+00 0.000000E+00 0.000000E+00   0.100000E+01 0.000000E+00 0.000000E+00   0.000000E+00 0.100000E+01 0.000000E+00   0.125000E+00 0.100000E+01 0.000000E+00   0.250000E+00 0.100000E+01 0.000000E+00   0.375000E+00 0.100000E+01 0.000000E+00   0.500000E+00 0.100000E+01 0.000000E+00   0.625000E+00 0.100000E+01 0.000000E+00   0.750000E+00 0.100000E+01 0.000000E+00   0.875000E+00 0.100000E+01 0.000000E+00   0.100000E+01 0.100000E+01 0.000000E+00 
        </DataArray>
      </Points>
      <Cells>
        <DataArray type="Int32" Name="connectivity" format="ascii">
          0 1 10 9 1 2 11 10 2 3 12 11 3 4 13 12 4 5 14 13 5 6 15 14 6 7 16 15 7 8 17 16 
         </DataArray>
        <DataArray type="Int32" Name="offsets" format="ascii">
          4 8 12 16 20 24 28 32 
         </DataArray>
          <DataArray type="Int32" Name="types" format="ascii">
          5 5 5 5 5 5 5 5 
         </DataArray>
      </Cells>
    </Piece>
  </UnstructuredGrid>
</VTKFile>
